 Gaussian 09, Revision D.01,
 Gaussian 09:  ES64L-G09RevD.01 24-Apr-2013

 ----------------------------------------------------------------------
 # td=(singlets,nstates=6,root=1) cam-b3lyp/aug-cc-pvdz nosymm density=
 all Field=x+0
 ----------------------------------------------------------------------

 ---------------------------------------------------------
 Calculo da energia de absorcao com campo eletrico externo
 ---------------------------------------------------------
 Symbolic Z-matrix:
 Charge =  0 Multiplicity = 1

                          Input orientation:
 ---------------------------------------------------------------------
 Center     Atomic      Atomic             Coordinates (Angstroms)
 Number     Number       Type             X           Y           Z
 ---------------------------------------------------------------------
      1          6           0       -1.044398   -0.302857   -1.182833
      2          6           0       -0.323134   -0.000673   -0.000100
      3          6           0       -1.044024    0.301245    1.183012
      4          6           0       -2.408560    0.311744    1.188634
      5          6           0       -3.194057    0.000414    0.000070
      6          6           0       -2.408990   -0.312366   -1.188362
      7          1           0       -2.960663    0.585360    2.086774
      8          1           0       -0.510436    0.594715    2.087558
      9          1           0       -2.961331   -0.586162   -2.086292
     10          7           0        1.081037   -0.000264   -0.000230
     11          6           0        1.785535    0.328107   -1.125150
     12          6           0        3.162754    0.311633   -1.149038
     13          6           0        3.885754    0.000818    0.000227
     14          6           0        3.162765   -0.310926    1.149125
     15          6           0        1.785509   -0.328536    1.124560
     16          1           0        1.194013    0.642328   -1.976551
     17          1           0        3.664145    0.579737   -2.076784
     18          1           0        4.973268    0.001441    0.000275
     19          1           0        3.663940   -0.578737    2.077065
     20          1           0        1.194064   -0.643348    1.975783
     21          1           0       -0.511078   -0.597298   -2.087211
     22          8           0       -4.433513    0.001524    0.000016
 ---------------------------------------------------------------------

 SCF Done:  E(RCAM-B3LYP) =  -554.271784095     A.U. after   17 cycles

 Excitation energies and oscillator strengths:

 Excited state symmetry could not be determined.
 Excited State   1:      Singlet-?Sym    2.4948 eV  496.97 nm  f=0.5364  <S**2>=0.000
      45 -> 46         0.70316
      45 <- 46        -0.10075
 This state for optimization and/or second-order correction.
 Total Energy, E(TD-HF/TD-KS) =  -554.180101924
 Copying the excited state density for this state as the 1-particle RhoCI density.

 Excited state symmetry could not be determined.
 Excited State   2:      Singlet-?Sym    2.9469 eV  420.72 nm  f=0.0036  <S**2>=0.000
      45 -> 47         0.69548

 Excited state symmetry could not be determined.
 Excited State   3:      Singlet-?Sym    3.1771 eV  390.24 nm  f=0.0078  <S**2>=0.000
      44 -> 46         0.66847
      44 -> 59        -0.17656

 Excited state symmetry could not be determined.
 Excited State   4:      Singlet-?Sym    4.0344 eV  307.32 nm  f=0.0021  <S**2>=0.000
      45 -> 48         0.59970
      45 -> 50        -0.31167
      45 -> 52        -0.14619

 Excited state symmetry could not be determined.
 Excited State   5:      Singlet-?Sym    4.2583 eV  291.16 nm  f=0.0157  <S**2>=0.000
      43 -> 46         0.48977
      45 -> 48        -0.11774
      45 -> 52        -0.31927
      45 -> 54        -0.28458
      45 -> 56         0.20514

 Excited state symmetry could not be determined.
 Excited State   6:      Singlet-?Sym    4.2851 eV  289.34 nm  f=0.0203  <S**2>=0.000
      43 -> 46         0.50452
      45 -> 52         0.32344
      45 -> 54         0.28316
      45 -> 56        -0.19715

 Alpha  occ. eigenvalues --  -19.14095 -14.55071 -10.35324 -10.35321 -10.32510
 Alpha  occ. eigenvalues --  -10.32507 -10.32180 -10.29840 -10.29724 -10.27119
 Alpha  occ. eigenvalues --  -10.27117 -10.24033 -10.24030  -1.14294  -1.05603
 Alpha  occ. eigenvalues --   -0.96996  -0.91746  -0.91298  -0.83263  -0.81914
 Alpha  occ. eigenvalues --   -0.77953  -0.75739  -0.68898  -0.67552  -0.64623
 Alpha  occ. eigenvalues --   -0.61918  -0.60678  -0.58658  -0.56947  -0.55693
 Alpha  occ. eigenvalues --   -0.52005  -0.51601  -0.49881  -0.49478  -0.47793
 Alpha  occ. eigenvalues --   -0.47308  -0.45417  -0.42811  -0.42452  -0.40470
 Alpha  occ. eigenvalues --   -0.37971  -0.36418  -0.31587  -0.26919  -0.22252
 Alpha virt. eigenvalues --   -0.06628  -0.02638  -0.00960   0.00511   0.01251
 Alpha virt. eigenvalues --    0.02717   0.03047   0.03184   0.03734   0.04874
 Alpha virt. eigenvalues --    0.05126   0.05389   0.05894   0.06378   0.07432

 Mulliken charges:
               1
     1  C    0.957357
     2  C    0.295663
     3  C    0.957298
     4  C    1.011938
     5  C   -0.156234
     6  C    1.012240
     7  H   -0.812599
     8  H   -1.044893
     9  H   -0.812517
    10  N    0.149726
    11  C    0.774880
    12  C    1.118280
    13  C    0.360236
    14  C    1.119001
    15  C    0.774756
    16  H   -0.936477
    17  H   -0.746214
    18  H   -0.679064
    19  H   -0.746131
    20  H   -0.936243
    21  H   -1.044324
    22  O   -0.616681
 Sum of Mulliken charges =   0.00000

 Dipole moment (field-independent basis, Debye):
    X=             10.0165    Y=             -0.0026    Z=             -0.0002  Tot=             10.0165
 Quadrupole moment (field-independent basis, Debye-Ang):
   XX=            -98.2251   YY=            -80.4125   ZZ=            -66.6360
   XY=              0.0196   XZ=              0.0013   YZ=             -0.9369

 Normal termination of Gaussian 09 at Tue Sep 27 08:48:17 2016.
